[Molden Format]
[Title]
Generated by Multiwfn  Date: 2026-02-25 Time: 16:35:03
[Atoms] AU
O       1   8     0.0000000     0.0000000     0.2094041
H       2   1     0.0000000     1.4814997    -0.8376164
H       3   1    -0.0000000    -1.4814997    -0.8376164
[GTO]
     1     0
s   6 1.0
  5.48467166E+03  1.83107443E-03
  8.25234946E+02  1.39501722E-02
  1.88046958E+02  6.84450781E-02
  5.29645000E+01  2.32714336E-01
  1.68975704E+01  4.70192898E-01
  5.79963534E+00  3.58520853E-01
s   3 1.0
  1.55396162E+01 -1.10777550E-01
  3.59993359E+00 -1.48026263E-01
  1.01376175E+00  1.13076702E+00
p   3 1.0
  1.55396162E+01  7.08742682E-02
  3.59993359E+00  3.39752839E-01
  1.01376175E+00  7.27158577E-01
s   1 1.0
  2.70005823E-01  1.00000000E+00
p   1 1.0
  2.70005823E-01  1.00000000E+00
d   1 1.0
  8.00000000E-01  1.00000000E+00
 
     2     0
s   3 1.0
  1.87311370E+01  3.34946043E-02
  2.82539436E+00  2.34726953E-01
  6.40121692E-01  8.13757326E-01
s   1 1.0
  1.61277759E-01  1.00000000E+00
 
     3     0
s   3 1.0
  1.87311370E+01  3.34946043E-02
  2.82539436E+00  2.34726953E-01
  6.40121692E-01  8.13757326E-01
s   1 1.0
  1.61277759E-01  1.00000000E+00
 
 
[MO]
Ene=    -19.13347820
Spin= Alpha
Occup=  2.000000
     1      0.9928424870
     2      0.0262183894
     3      0.0000000000
     4      0.0000000000
     5     -0.0010863710
     6      0.0102899429
     7      0.0000000000
     8      0.0000000000
     9     -0.0000046848
    10     -0.0077666442
    11     -0.0078094050
    12     -0.0077849832
    13      0.0000000000
    14      0.0000000000
    15      0.0000000000
    16      0.0003787925
    17     -0.0010899818
    18      0.0003787925
    19     -0.0010899818
Ene=     -0.99651325
Spin= Alpha
Occup=  2.000000
     1     -0.2101538300
     2      0.4704027470
     3      0.0000000000
     4      0.0000000000
     5     -0.1225652730
     6      0.4391560340
     7      0.0000000000
     8      0.0000000000
     9     -0.0572773156
    10     -0.0106573650
    11      0.0214490532
    12      0.0133390989
    13      0.0000000000
    14      0.0000000000
    15      0.0000000000
    16      0.1394865950
    17      0.0064422211
    18      0.1394865950
    19      0.0064422211
Ene=     -0.53006437
Spin= Alpha
Occup=  2.000000
     1      0.0000000000
     2      0.0000000000
     3      0.0000000000
     4      0.5158796930
     5      0.0000000000
     6      0.0000000000
     7      0.0000000000
     8      0.2631121120
     9      0.0000000000
    10      0.0000000000
    11      0.0000000000
    12      0.0000000000
    13      0.0000000000
    14      0.0000000000
    15     -0.0394826637
    16      0.2410215570
    17      0.1340391030
    18     -0.2410215570
    19     -0.1340391030
Ene=     -0.36083854
Spin= Alpha
Occup=  2.000000
     1     -0.0840456519
     2      0.1684589440
     3      0.0000000000
     4      0.0000000000
     5      0.5605076450
     6      0.3963926710
     7      0.0000000000
     8      0.0000000000
     9      0.3858885630
    10      0.0001456957
    11      0.0013296692
    12     -0.0509038053
    13      0.0000000000
    14      0.0000000000
    15      0.0000000000
    16     -0.1376141190
    17     -0.1098710290
    18     -0.1376141190
    19     -0.1098710290
Ene=     -0.28978284
Spin= Alpha
Occup=  2.000000
     1      0.0000000000
     2      0.0000000000
     3      0.6436836850
     4      0.0000000000
     5      0.0000000000
     6      0.0000000000
     7      0.5070628430
     8      0.0000000000
     9      0.0000000000
    10      0.0000000000
    11      0.0000000000
    12      0.0000000000
    13      0.0000000000
    14     -0.0343196967
    15      0.0000000000
    16      0.0000000000
    17      0.0000000000
    18      0.0000000000
    19      0.0000000000
Ene=      0.06550129
Spin= Alpha
Occup=  0.000000
     1     -0.1036948470
     2      0.1232117560
     3      0.0000000000
     4      0.0000000000
     5     -0.2662700190
     6      1.2927152400
     7      0.0000000000
     8      0.0000000000
     9     -0.4547618200
    10     -0.0586073466
    11     -0.0462384212
    12     -0.0304999446
    13      0.0000000000
    14      0.0000000000
    15      0.0000000000
    16     -0.1005321950
    17     -0.9827849250
    18     -0.1005321950
    19     -0.9827849250
Ene=      0.15268362
Spin= Alpha
Occup=  0.000000
     1      0.0000000000
     2      0.0000000000
     3      0.0000000000
     4     -0.4085828080
     5      0.0000000000
     6      0.0000000000
     7      0.0000000000
     8     -0.7770001140
     9      0.0000000000
    10      0.0000000000
    11      0.0000000000
    12      0.0000000000
    13      0.0000000000
    14      0.0000000000
    15      0.0197474973
    16      0.0958791543
    17      1.2893232400
    18     -0.0958791543
    19     -1.2893232400
Ene=      0.80047718
Spin= Alpha
Occup=  0.000000
     1      0.0000000000
     2      0.0000000000
     3      0.0000000000
     4     -0.2047343890
     5      0.0000000000
     6      0.0000000000
     7      0.0000000000
     8     -0.4617598880
     9      0.0000000000
    10      0.0000000000
    11      0.0000000000
    12      0.0000000000
    13      0.0000000000
    14      0.0000000000
    15     -0.2065526350
    16      0.8477904240
    17     -0.6048777490
    18     -0.8477904240
    19      0.6048777490
Ene=      0.84879336
Spin= Alpha
Occup=  0.000000
     1      0.0446174832
     2     -0.2491269000
     3      0.0000000000
     4      0.0000000000
     5      0.5017805490
     6      0.2520515760
     7      0.0000000000
     8      0.0000000000
     9     -0.1017595320
    10     -0.1656264940
    11      0.1593465780
    12     -0.0558462919
    13      0.0000000000
    14      0.0000000000
    15      0.0000000000
    16      0.8221946800
    17     -0.5805805040
    18      0.8221946800
    19     -0.5805805040
Ene=      0.89218910
Spin= Alpha
Occup=  0.000000
     1      0.0000000000
     2      0.0000000000
     3     -0.9600311700
     4      0.0000000000
     5      0.0000000000
     6      0.0000000000
     7      1.0381899600
     8      0.0000000000
     9      0.0000000000
    10      0.0000000000
    11      0.0000000000
    12      0.0000000000
    13      0.0000000000
    14     -0.0150929841
    15      0.0000000000
    16      0.0000000000
    17      0.0000000000
    18      0.0000000000
    19      0.0000000000
Ene=      0.89240309
Spin= Alpha
Occup=  0.000000
     1      0.0040591861
     2     -0.6840996830
     3      0.0000000000
     4      0.0000000000
     5     -0.7523552940
     6      1.1337251200
     7      0.0000000000
     8      0.0000000000
     9      0.9485104640
    10     -0.2573016120
    11     -0.1563678480
    12     -0.2499860930
    13      0.0000000000
    14      0.0000000000
    15      0.0000000000
    16      0.2820543140
    17     -0.1935765490
    18      0.2820543140
    19     -0.1935765490
Ene=      1.07366798
Spin= Alpha
Occup=  0.000000
     1      0.0000000000
     2      0.0000000000
     3      0.0000000000
     4     -0.9898762380
     5      0.0000000000
     6      0.0000000000
     7      0.0000000000
     8      1.6763226300
     9      0.0000000000
    10      0.0000000000
    11      0.0000000000
    12      0.0000000000
    13      0.0000000000
    14      0.0000000000
    15      0.0253573436
    16     -0.0015244942
    17     -0.9354542080
    18      0.0015244942
    19      0.9354542080
Ene=      1.17570713
Spin= Alpha
Occup=  0.000000
     1     -0.0783367116
     2     -1.5302979100
     3      0.0000000000
     4      0.0000000000
     5      0.3911692490
     6      3.7172167000
     7      0.0000000000
     8      0.0000000000
     9     -1.0045828600
    10     -0.3127004510
    11     -0.6514748250
    12     -0.3915964290
    13      0.0000000000
    14      0.0000000000
    15      0.0000000000
    16     -0.2568740300
    17     -0.8387221800
    18     -0.2568740300
    19     -0.8387221800
Ene=      1.73998104
Spin= Alpha
Occup=  0.000000
     1      0.0000000000
     2      0.0000000000
     3      0.0000000000
     4      0.0000000000
     5      0.0000000000
     6      0.0000000000
     7      0.0000000000
     8      0.0000000000
     9      0.0000000000
    10      0.0000000000
    11      0.0000000000
    12      0.0000000000
    13      1.0000000000
    14      0.0000000000
    15      0.0000000000
    16      0.0000000000
    17      0.0000000000
    18      0.0000000000
    19      0.0000000000
Ene=      1.74507829
Spin= Alpha
Occup=  0.000000
     1      0.0078000156
     2      0.0901822623
     3      0.0000000000
     4      0.0000000000
     5     -0.0058340394
     6     -0.2578126610
     7      0.0000000000
     8      0.0000000000
     9      0.1378267170
    10     -0.4457227630
    11     -0.5046702510
    12      1.0176993200
    13      0.0000000000
    14      0.0000000000
    15      0.0000000000
    16      0.0889741049
    17      0.0406149945
    18      0.0889741049
    19      0.0406149945
Ene=      1.78547352
Spin= Alpha
Occup=  0.000000
     1      0.0000000000
     2      0.0000000000
     3      0.0076066416
     4      0.0000000000
     5      0.0000000000
     6      0.0000000000
     7      0.0330948955
     8      0.0000000000
     9      0.0000000000
    10      0.0000000000
    11      0.0000000000
    12      0.0000000000
    13      0.0000000000
    14      0.9992969330
    15      0.0000000000
    16      0.0000000000
    17      0.0000000000
    18      0.0000000000
    19      0.0000000000
Ene=      2.29893441
Spin= Alpha
Occup=  0.000000
     1     -0.0514316353
     2     -0.4910210330
     3      0.0000000000
     4      0.0000000000
     5      0.0463453069
     6      1.5069652900
     7      0.0000000000
     8      0.0000000000
     9     -0.6829056620
    10     -1.0922750100
    11      0.8363587600
    12     -0.0557425504
    13      0.0000000000
    14      0.0000000000
    15      0.0000000000
    16     -0.8180736330
    17     -0.1298479600
    18     -0.8180736330
    19     -0.1298479600
Ene=      2.59363559
Spin= Alpha
Occup=  0.000000
     1      0.0000000000
     2      0.0000000000
     3      0.0000000000
     4      0.0371679492
     5      0.0000000000
     6      0.0000000000
     7      0.0000000000
     8     -0.9424432450
     9      0.0000000000
    10      0.0000000000
    11      0.0000000000
    12      0.0000000000
    13      0.0000000000
    14      0.0000000000
    15      1.2742807000
    16      0.9560925550
    17     -0.0115320789
    18     -0.9560925550
    19      0.0115320789
Ene=      3.56651601
Spin= Alpha
Occup=  0.000000
     1     -0.4696239750
     2      0.2781097030
     3      0.0000000000
     4      0.0000000000
     5      0.1125959010
     6      3.7262352900
     7      0.0000000000
     8      0.0000000000
     9     -0.3113158370
    10     -1.5776710000
    11     -1.5389652500
    12     -1.5611490800
    13      0.0000000000
    14      0.0000000000
    15      0.0000000000
    16      0.1329924770
    17     -0.5721015270
    18      0.1329924770
    19     -0.5721015270
