[Molden Format]
[Title]
Generated by Multiwfn  Date: 2025-11-07 Time: 14:06:14
[Atoms] AU
O       1   8    -0.0000000     0.0000000     0.2094041
H       2   1    -0.0000000     1.4814997    -0.8376164
H       3   1    -0.0000000    -1.4814997    -0.8376164
[GTO]
     1     0
s   6 1.0
  5.48467166E+03  1.83107443E-03
  8.25234946E+02  1.39501722E-02
  1.88046958E+02  6.84450781E-02
  5.29645000E+01  2.32714336E-01
  1.68975704E+01  4.70192898E-01
  5.79963534E+00  3.58520853E-01
s   3 1.0
  1.55396162E+01 -1.10777550E-01
  3.59993359E+00 -1.48026263E-01
  1.01376175E+00  1.13076702E+00
p   3 1.0
  1.55396162E+01  7.08742682E-02
  3.59993359E+00  3.39752839E-01
  1.01376175E+00  7.27158577E-01
s   1 1.0
  2.70005823E-01  1.00000000E+00
p   1 1.0
  2.70005823E-01  1.00000000E+00
d   1 1.0
  8.00000000E-01  1.00000000E+00
 
     2     0
s   3 1.0
  1.87311370E+01  3.34946043E-02
  2.82539436E+00  2.34726953E-01
  6.40121692E-01  8.13757326E-01
s   1 1.0
  1.61277759E-01  1.00000000E+00
 
     3     0
s   3 1.0
  1.87311370E+01  3.34946043E-02
  2.82539436E+00  2.34726953E-01
  6.40121692E-01  8.13757326E-01
s   1 1.0
  1.61277759E-01  1.00000000E+00
 
 
[5D10F]
[MO]
Ene=    -19.19824690
Spin= Alpha
Occup=  2.000000
     1      0.9951385780
     2      0.0271936450
     3      0.0000000000
     4      0.0000000000
     5     -0.0016343504
     6     -0.0125925652
     7      0.0000000000
     8      0.0000000000
     9      0.0023342055
    10      0.0000004681
    11      0.0000000000
    12      0.0000000000
    13      0.0002377196
    14      0.0000000000
    15      0.0001837023
    16      0.0029100746
    17      0.0001837023
    18      0.0029100746
Ene=     -1.02177065
Spin= Alpha
Occup=  2.000000
     1     -0.2126928920
     2      0.4645378010
     3      0.0000000000
     4      0.0000000000
     5     -0.1176416250
     6      0.4765818070
     7      0.0000000000
     8      0.0000000000
     9     -0.0626066400
    10      0.0052207908
    11      0.0000000000
    12      0.0000000000
    13     -0.0191831501
    14      0.0000000000
    15      0.1376029660
    16     -0.0027056293
    17      0.1376029660
    18     -0.0027056293
Ene=     -0.54288633
Spin= Alpha
Occup=  2.000000
     1      0.0000000000
     2      0.0000000000
     3      0.0000000000
     4      0.5137311040
     5      0.0000000000
     6      0.0000000000
     7      0.0000000000
     8      0.2738186970
     9      0.0000000000
    10      0.0000000000
    11      0.0000000000
    12     -0.0407293093
    13      0.0000000000
    14      0.0000000000
    15      0.2402078870
    16      0.1240922490
    17     -0.2402078870
    18     -0.1240922490
Ene=     -0.37418143
Spin= Alpha
Occup=  2.000000
     1     -0.0780614934
     2      0.1782642160
     3      0.0000000000
     4      0.0000000000
     5      0.5588676350
     6      0.3229910690
     7      0.0000000000
     8      0.0000000000
     9      0.3987542600
    10     -0.0351611393
    11      0.0000000000
    12      0.0000000000
    13     -0.0001040150
    14      0.0000000000
    15     -0.1375200060
    16     -0.0915685497
    17     -0.1375200060
    18     -0.0915685497
Ene=     -0.30245339
Spin= Alpha
Occup=  2.000000
     1      0.0000000000
     2      0.0000000000
     3      0.6399597950
     4      0.0000000000
     5      0.0000000000
     6      0.0000000000
     7      0.5110620740
     8      0.0000000000
     9      0.0000000000
    10      0.0000000000
    11     -0.0348300245
    12      0.0000000000
    13      0.0000000000
    14      0.0000000000
    15      0.0000000000
    16      0.0000000000
    17      0.0000000000
    18      0.0000000000
Ene=      0.08631294
Spin= Alpha
Occup=  0.000000
     1     -0.0921140567
     2      0.1573179190
     3      0.0000000000
     4      0.0000000000
     5     -0.2617933080
     6      1.1242070100
     7      0.0000000000
     8      0.0000000000
     9     -0.4400964490
    10      0.0145235780
    11      0.0000000000
    12      0.0000000000
    13     -0.0061096444
    14      0.0000000000
    15     -0.1029918600
    16     -0.9511679970
    17     -0.1029918600
    18     -0.9511679970
Ene=      0.17140707
Spin= Alpha
Occup=  0.000000
     1      0.0000000000
     2      0.0000000000
     3      0.0000000000
     4     -0.4027742990
     5      0.0000000000
     6      0.0000000000
     7      0.0000000000
     8     -0.7830220330
     9      0.0000000000
    10      0.0000000000
    11      0.0000000000
    12      0.0179849494
    13      0.0000000000
    14      0.0000000000
    15      0.0985206499
    16      1.2920945600
    17     -0.0985206499
    18     -1.2920945600
Ene=      0.82090031
Spin= Alpha
Occup=  0.000000
     1      0.0000000000
     2      0.0000000000
     3      0.0000000000
     4     -0.1937334630
     5      0.0000000000
     6      0.0000000000
     7      0.0000000000
     8     -0.4732989360
     9      0.0000000000
    10      0.0000000000
    11      0.0000000000
    12     -0.2122670340
    13      0.0000000000
    14      0.0000000000
    15      0.8432838000
    16     -0.5985267220
    17     -0.8432838000
    18      0.5985267220
Ene=      0.87256230
Spin= Alpha
Occup=  0.000000
     1      0.0495455101
     2     -0.2154863010
     3      0.0000000000
     4      0.0000000000
     5      0.4854017730
     6      0.1403869750
     7      0.0000000000
     8      0.0000000000
     9     -0.0675774685
    10     -0.0378126873
    11      0.0000000000
    12      0.0000000000
    13     -0.1974191910
    14      0.0000000000
    15      0.8265385500
    16     -0.5564344840
    17      0.8265385500
    18     -0.5564344840
Ene=      0.91926511
Spin= Alpha
Occup=  0.000000
     1      0.0000000000
     2      0.0000000000
     3     -0.9625235040
     4      0.0000000000
     5      0.0000000000
     6      0.0000000000
     7      1.0361814100
     8      0.0000000000
     9      0.0000000000
    10      0.0000000000
    11     -0.0160889733
    12      0.0000000000
    13      0.0000000000
    14      0.0000000000
    15      0.0000000000
    16      0.0000000000
    17      0.0000000000
    18      0.0000000000
Ene=      0.94557153
Spin= Alpha
Occup=  0.000000
     1      0.0543803161
     2     -0.3388911040
     3      0.0000000000
     4      0.0000000000
     5     -0.8363834600
     6      0.0046202870
     7      0.0000000000
     8      0.0000000000
     9      1.1693503000
    10     -0.0394572410
    11      0.0000000000
    12      0.0000000000
    13     -0.0869351222
    14      0.0000000000
    15      0.3158471110
    16      0.0388207173
    17      0.3158471110
    18      0.0388207173
Ene=      1.10187276
Spin= Alpha
Occup=  0.000000
     1      0.0000000000
     2      0.0000000000
     3      0.0000000000
     4     -0.9956100860
     5      0.0000000000
     6      0.0000000000
     7      0.0000000000
     8      1.6675897400
     9      0.0000000000
    10      0.0000000000
    11      0.0000000000
    12      0.0229515886
    13      0.0000000000
    14      0.0000000000
    15      0.0064254824
    16     -0.9370619640
    17     -0.0064254824
    18      0.9370619640
Ene=      1.39453382
Spin= Alpha
Occup=  0.000000
     1      0.0684650515
     2     -1.6192554100
     3      0.0000000000
     4      0.0000000000
     5      0.1987039580
     6      2.5319735100
     7      0.0000000000
     8      0.0000000000
     9     -0.6352767600
    10      0.0768700140
    11      0.0000000000
    12      0.0000000000
    13      0.2301406890
    14      0.0000000000
    15     -0.1666882780
    16     -0.6712658450
    17     -0.1666882780
    18     -0.6712658450
Ene=      1.74833208
Spin= Alpha
Occup=  0.000000
     1      0.0000000000
     2      0.0000000000
     3      0.0000000000
     4      0.0000000000
     5      0.0000000000
     6      0.0000000000
     7      0.0000000000
     8      0.0000000000
     9      0.0000000000
    10      0.0000000000
    11      0.0000000000
    12      0.0000000000
    13      0.0000000000
    14      1.0000000000
    15      0.0000000000
    16      0.0000000000
    17      0.0000000000
    18      0.0000000000
Ene=      1.75421196
Spin= Alpha
Occup=  0.000000
     1     -0.0006820689
     2      0.1316037200
     3      0.0000000000
     4      0.0000000000
     5     -0.0078084158
     6     -0.2611799840
     7      0.0000000000
     8      0.0000000000
     9      0.1460473090
    10      0.9937019550
    11      0.0000000000
    12      0.0000000000
    13      0.0235029254
    14      0.0000000000
    15      0.0924609558
    16      0.0482214225
    17      0.0924609558
    18      0.0482214225
Ene=      1.79469407
Spin= Alpha
Occup=  0.000000
     1      0.0000000000
     2      0.0000000000
     3      0.0068088135
     4      0.0000000000
     5      0.0000000000
     6      0.0000000000
     7      0.0344967983
     8      0.0000000000
     9      0.0000000000
    10      0.0000000000
    11      0.9992637360
    12      0.0000000000
    13      0.0000000000
    14      0.0000000000
    15      0.0000000000
    16      0.0000000000
    17      0.0000000000
    18      0.0000000000
Ene=      2.32104356
Spin= Alpha
Occup=  0.000000
     1     -0.0181119744
     2     -0.5576620500
     3      0.0000000000
     4      0.0000000000
     5      0.0404903917
     6      1.3335949400
     7      0.0000000000
     8      0.0000000000
     9     -0.6769046320
    10      0.0467586837
    11      0.0000000000
    12      0.0000000000
    13     -1.1027083600
    14      0.0000000000
    15     -0.8336963880
    16     -0.1105137270
    17     -0.8336963880
    18     -0.1105137270
Ene=      2.61128529
Spin= Alpha
Occup=  0.000000
     1      0.0000000000
     2      0.0000000000
     3      0.0000000000
     4      0.0361314228
     5      0.0000000000
     6      0.0000000000
     7      0.0000000000
     8     -0.9441761560
     9      0.0000000000
    10      0.0000000000
    11      0.0000000000
    12      1.2733737400
    13      0.0000000000
    14      0.0000000000
    15      0.9599859840
    16     -0.0133758480
    17     -0.9599859840
    18      0.0133758480
